 TITLE="Tecplot Test"
 VARIABLES="X" "Y" "Density"
 ZONE F=POINT, I= 4 , J= 4
 -1.875000E+00 -1.875000E+00  1.000000E+00
 -1.625000E+00 -1.875000E+00  1.000005E+00
 -1.375000E+00 -1.875000E+00  1.000019E+00
 -1.125000E+00 -1.875000E+00  1.000581E+00
 -1.875000E+00 -1.625000E+00  1.000005E+00
 -1.625000E+00 -1.625000E+00  1.000000E+00
 -1.375000E+00 -1.625000E+00  1.000900E+00
 -1.125000E+00 -1.625000E+00  1.012153E+00
 -1.875000E+00 -1.375000E+00  1.000019E+00
 -1.625000E+00 -1.375000E+00  1.000900E+00
 -1.375000E+00 -1.375000E+00  1.018000E+00
 -1.125000E+00 -1.375000E+00  1.130950E+00
 -1.875000E+00 -1.125000E+00  1.000581E+00
 -1.625000E+00 -1.125000E+00  1.012153E+00
 -1.375000E+00 -1.125000E+00  1.130950E+00
 -1.125000E+00 -1.125000E+00  1.697500E+00
 ZONE F=POINT, I= 4 , J= 4
 -8.750000E-01 -1.875000E+00  1.003578E+00
 -6.250000E-01 -1.875000E+00  1.004140E+00
 -3.750000E-01 -1.875000E+00  1.004154E+00
 -1.250000E-01 -1.875000E+00  1.004160E+00
 -8.750000E-01 -1.625000E+00  1.049598E+00
 -6.250000E-01 -1.625000E+00  1.060851E+00
 -3.750000E-01 -1.625000E+00  1.061751E+00
 -1.250000E-01 -1.625000E+00  1.061751E+00
 -8.750000E-01 -1.375000E+00  1.405990E+00
 -6.250000E-01 -1.375000E+00  1.518940E+00
 -3.750000E-01 -1.375000E+00  1.536040E+00
 -1.250000E-01 -1.375000E+00  1.536940E+00
 -8.750000E-01 -1.125000E+00  2.856340E+00
 -6.250000E-01 -1.125000E+00  3.422890E+00
 -3.750000E-01 -1.125000E+00  3.541690E+00
 -1.250000E-01 -1.125000E+00  3.553390E+00
 ZONE F=POINT, I= 4 , J= 4
 -1.875000E+00 -8.750000E-01  1.003578E+00
 -1.625000E+00 -8.750000E-01  1.049598E+00
 -1.375000E+00 -8.750000E-01  1.405990E+00
 -1.125000E+00 -8.750000E-01  2.856340E+00
 -1.875000E+00 -6.250000E-01  1.004140E+00
 -1.625000E+00 -6.250000E-01  1.060851E+00
 -1.375000E+00 -6.250000E-01  1.518940E+00
 -1.125000E+00 -6.250000E-01  3.422890E+00
 -1.875000E+00 -3.750000E-01  1.004154E+00
 -1.625000E+00 -3.750000E-01  1.061751E+00
 -1.375000E+00 -3.750000E-01  1.536040E+00
 -1.125000E+00 -3.750000E-01  3.541690E+00
 -1.875000E+00 -1.250000E-01  1.004160E+00
 -1.625000E+00 -1.250000E-01  1.061751E+00
 -1.375000E+00 -1.250000E-01  1.536940E+00
 -1.125000E+00 -1.250000E-01  3.553390E+00
 ZONE F=POINT, I= 4 , J= 4
 -8.750000E-01 -8.750000E-01  5.589820E+00
 -6.250000E-01 -8.750000E-01  7.040170E+00
 -3.750000E-01 -8.750000E-01  7.396570E+00
 -1.250000E-01 -8.750000E-01  7.442831E+00
 -8.750000E-01 -6.250000E-01  7.040170E+00
 -6.250000E-01 -6.250000E-01  8.944120E+00
 -3.750000E-01 -6.250000E-01  9.402220E+00
 -1.250000E-01 -6.250000E-01  9.459280E+00
 -8.750000E-01 -3.750000E-01  7.396570E+00
 -6.250000E-01 -3.750000E-01  9.402220E+00
 -3.750000E-01 -3.750000E-01  9.876520E+00
 -1.250000E-01 -3.750000E-01  9.934481E+00
 -8.750000E-01 -1.250000E-01  7.442831E+00
 -6.250000E-01 -1.250000E-01  9.459280E+00
 -3.750000E-01 -1.250000E-01  9.934481E+00
 -1.250000E-01 -1.250000E-01  9.992440E+00
 ZONE F=POINT, I= 4 , J= 4
  1.250000E-01 -1.875000E+00  1.004160E+00
  3.750000E-01 -1.875000E+00  1.004154E+00
  6.250000E-01 -1.875000E+00  1.004140E+00
  8.750000E-01 -1.875000E+00  1.003578E+00
  1.250000E-01 -1.625000E+00  1.061751E+00
  3.750000E-01 -1.625000E+00  1.061751E+00
  6.250000E-01 -1.625000E+00  1.060851E+00
  8.750000E-01 -1.625000E+00  1.049598E+00
  1.250000E-01 -1.375000E+00  1.536940E+00
  3.750000E-01 -1.375000E+00  1.536040E+00
  6.250000E-01 -1.375000E+00  1.518940E+00
  8.750000E-01 -1.375000E+00  1.405990E+00
  1.250000E-01 -1.125000E+00  3.553390E+00
  3.750000E-01 -1.125000E+00  3.541690E+00
  6.250000E-01 -1.125000E+00  3.422890E+00
  8.750000E-01 -1.125000E+00  2.856340E+00
 ZONE F=POINT, I= 4 , J= 4
  1.125000E+00 -1.875000E+00  1.000581E+00
  1.375000E+00 -1.875000E+00  1.000019E+00
  1.625000E+00 -1.875000E+00  1.000005E+00
  1.875000E+00 -1.875000E+00  1.000000E+00
  1.125000E+00 -1.625000E+00  1.012153E+00
  1.375000E+00 -1.625000E+00  1.000900E+00
  1.625000E+00 -1.625000E+00  1.000000E+00
  1.875000E+00 -1.625000E+00  1.000005E+00
  1.125000E+00 -1.375000E+00  1.130950E+00
  1.375000E+00 -1.375000E+00  1.018000E+00
  1.625000E+00 -1.375000E+00  1.000900E+00
  1.875000E+00 -1.375000E+00  1.000019E+00
  1.125000E+00 -1.125000E+00  1.697500E+00
  1.375000E+00 -1.125000E+00  1.130950E+00
  1.625000E+00 -1.125000E+00  1.012153E+00
  1.875000E+00 -1.125000E+00  1.000581E+00
 ZONE F=POINT, I= 4 , J= 4
  1.250000E-01 -8.750000E-01  7.442831E+00
  3.750000E-01 -8.750000E-01  7.396570E+00
  6.250000E-01 -8.750000E-01  7.040170E+00
  8.750000E-01 -8.750000E-01  5.589820E+00
  1.250000E-01 -6.250000E-01  9.459280E+00
  3.750000E-01 -6.250000E-01  9.402220E+00
  6.250000E-01 -6.250000E-01  8.944120E+00
  8.750000E-01 -6.250000E-01  7.040170E+00
  1.250000E-01 -3.750000E-01  9.934481E+00
  3.750000E-01 -3.750000E-01  9.876520E+00
  6.250000E-01 -3.750000E-01  9.402220E+00
  8.750000E-01 -3.750000E-01  7.396570E+00
  1.250000E-01 -1.250000E-01  9.992440E+00
  3.750000E-01 -1.250000E-01  9.934481E+00
  6.250000E-01 -1.250000E-01  9.459280E+00
  8.750000E-01 -1.250000E-01  7.442831E+00
 ZONE F=POINT, I= 4 , J= 4
  1.125000E+00 -8.750000E-01  2.856340E+00
  1.375000E+00 -8.750000E-01  1.405990E+00
  1.625000E+00 -8.750000E-01  1.049598E+00
  1.875000E+00 -8.750000E-01  1.003578E+00
  1.125000E+00 -6.250000E-01  3.422890E+00
  1.375000E+00 -6.250000E-01  1.518940E+00
  1.625000E+00 -6.250000E-01  1.060851E+00
  1.875000E+00 -6.250000E-01  1.004140E+00
  1.125000E+00 -3.750000E-01  3.541690E+00
  1.375000E+00 -3.750000E-01  1.536040E+00
  1.625000E+00 -3.750000E-01  1.061751E+00
  1.875000E+00 -3.750000E-01  1.004154E+00
  1.125000E+00 -1.250000E-01  3.553390E+00
  1.375000E+00 -1.250000E-01  1.536940E+00
  1.625000E+00 -1.250000E-01  1.061751E+00
  1.875000E+00 -1.250000E-01  1.004160E+00
 ZONE F=POINT, I= 4 , J= 4
 -1.875000E+00  1.250000E-01  1.004160E+00
 -1.625000E+00  1.250000E-01  1.061751E+00
 -1.375000E+00  1.250000E-01  1.536940E+00
 -1.125000E+00  1.250000E-01  3.553390E+00
 -1.875000E+00  3.750000E-01  1.004154E+00
 -1.625000E+00  3.750000E-01  1.061751E+00
 -1.375000E+00  3.750000E-01  1.536040E+00
 -1.125000E+00  3.750000E-01  3.541690E+00
 -1.875000E+00  6.250000E-01  1.004140E+00
 -1.625000E+00  6.250000E-01  1.060851E+00
 -1.375000E+00  6.250000E-01  1.518940E+00
 -1.125000E+00  6.250000E-01  3.422890E+00
 -1.875000E+00  8.750000E-01  1.003578E+00
 -1.625000E+00  8.750000E-01  1.049598E+00
 -1.375000E+00  8.750000E-01  1.405990E+00
 -1.125000E+00  8.750000E-01  2.856340E+00
 ZONE F=POINT, I= 4 , J= 4
 -8.750000E-01  1.250000E-01  7.442831E+00
 -6.250000E-01  1.250000E-01  9.459280E+00
 -3.750000E-01  1.250000E-01  9.934481E+00
 -1.250000E-01  1.250000E-01  9.992440E+00
 -8.750000E-01  3.750000E-01  7.396570E+00
 -6.250000E-01  3.750000E-01  9.402220E+00
 -3.750000E-01  3.750000E-01  9.876520E+00
 -1.250000E-01  3.750000E-01  9.934481E+00
 -8.750000E-01  6.250000E-01  7.040170E+00
 -6.250000E-01  6.250000E-01  8.944120E+00
 -3.750000E-01  6.250000E-01  9.402220E+00
 -1.250000E-01  6.250000E-01  9.459280E+00
 -8.750000E-01  8.750000E-01  5.589820E+00
 -6.250000E-01  8.750000E-01  7.040170E+00
 -3.750000E-01  8.750000E-01  7.396570E+00
 -1.250000E-01  8.750000E-01  7.442831E+00
 ZONE F=POINT, I= 4 , J= 4
 -1.875000E+00  1.125000E+00  1.000581E+00
 -1.625000E+00  1.125000E+00  1.012153E+00
 -1.375000E+00  1.125000E+00  1.130950E+00
 -1.125000E+00  1.125000E+00  1.697500E+00
 -1.875000E+00  1.375000E+00  1.000019E+00
 -1.625000E+00  1.375000E+00  1.000900E+00
 -1.375000E+00  1.375000E+00  1.018000E+00
 -1.125000E+00  1.375000E+00  1.130950E+00
 -1.875000E+00  1.625000E+00  1.000005E+00
 -1.625000E+00  1.625000E+00  1.000000E+00
 -1.375000E+00  1.625000E+00  1.000900E+00
 -1.125000E+00  1.625000E+00  1.012153E+00
 -1.875000E+00  1.875000E+00  1.000000E+00
 -1.625000E+00  1.875000E+00  1.000005E+00
 -1.375000E+00  1.875000E+00  1.000019E+00
 -1.125000E+00  1.875000E+00  1.000581E+00
 ZONE F=POINT, I= 4 , J= 4
 -8.750000E-01  1.125000E+00  2.856340E+00
 -6.250000E-01  1.125000E+00  3.422890E+00
 -3.750000E-01  1.125000E+00  3.541690E+00
 -1.250000E-01  1.125000E+00  3.553390E+00
 -8.750000E-01  1.375000E+00  1.405990E+00
 -6.250000E-01  1.375000E+00  1.518940E+00
 -3.750000E-01  1.375000E+00  1.536040E+00
 -1.250000E-01  1.375000E+00  1.536940E+00
 -8.750000E-01  1.625000E+00  1.049598E+00
 -6.250000E-01  1.625000E+00  1.060851E+00
 -3.750000E-01  1.625000E+00  1.061751E+00
 -1.250000E-01  1.625000E+00  1.061751E+00
 -8.750000E-01  1.875000E+00  1.003578E+00
 -6.250000E-01  1.875000E+00  1.004140E+00
 -3.750000E-01  1.875000E+00  1.004154E+00
 -1.250000E-01  1.875000E+00  1.004160E+00
 ZONE F=POINT, I= 4 , J= 4
  1.250000E-01  1.250000E-01  9.992440E+00
  3.750000E-01  1.250000E-01  9.934481E+00
  6.250000E-01  1.250000E-01  9.459280E+00
  8.750000E-01  1.250000E-01  7.442831E+00
  1.250000E-01  3.750000E-01  9.934481E+00
  3.750000E-01  3.750000E-01  9.876520E+00
  6.250000E-01  3.750000E-01  9.402220E+00
  8.750000E-01  3.750000E-01  7.396570E+00
  1.250000E-01  6.250000E-01  9.459280E+00
  3.750000E-01  6.250000E-01  9.402220E+00
  6.250000E-01  6.250000E-01  8.944120E+00
  8.750000E-01  6.250000E-01  7.040170E+00
  1.250000E-01  8.750000E-01  7.442831E+00
  3.750000E-01  8.750000E-01  7.396570E+00
  6.250000E-01  8.750000E-01  7.040170E+00
  8.750000E-01  8.750000E-01  5.589820E+00
 ZONE F=POINT, I= 4 , J= 4
  1.125000E+00  1.250000E-01  3.553390E+00
  1.375000E+00  1.250000E-01  1.536940E+00
  1.625000E+00  1.250000E-01  1.061751E+00
  1.875000E+00  1.250000E-01  1.004160E+00
  1.125000E+00  3.750000E-01  3.541690E+00
  1.375000E+00  3.750000E-01  1.536040E+00
  1.625000E+00  3.750000E-01  1.061751E+00
  1.875000E+00  3.750000E-01  1.004154E+00
  1.125000E+00  6.250000E-01  3.422890E+00
  1.375000E+00  6.250000E-01  1.518940E+00
  1.625000E+00  6.250000E-01  1.060851E+00
  1.875000E+00  6.250000E-01  1.004140E+00
  1.125000E+00  8.750000E-01  2.856340E+00
  1.375000E+00  8.750000E-01  1.405990E+00
  1.625000E+00  8.750000E-01  1.049598E+00
  1.875000E+00  8.750000E-01  1.003578E+00
 ZONE F=POINT, I= 4 , J= 4
  1.250000E-01  1.125000E+00  3.553390E+00
  3.750000E-01  1.125000E+00  3.541690E+00
  6.250000E-01  1.125000E+00  3.422890E+00
  8.750000E-01  1.125000E+00  2.856340E+00
  1.250000E-01  1.375000E+00  1.536940E+00
  3.750000E-01  1.375000E+00  1.536040E+00
  6.250000E-01  1.375000E+00  1.518940E+00
  8.750000E-01  1.375000E+00  1.405990E+00
  1.250000E-01  1.625000E+00  1.061751E+00
  3.750000E-01  1.625000E+00  1.061751E+00
  6.250000E-01  1.625000E+00  1.060851E+00
  8.750000E-01  1.625000E+00  1.049598E+00
  1.250000E-01  1.875000E+00  1.004160E+00
  3.750000E-01  1.875000E+00  1.004154E+00
  6.250000E-01  1.875000E+00  1.004140E+00
  8.750000E-01  1.875000E+00  1.003578E+00
 ZONE F=POINT, I= 4 , J= 4
  1.125000E+00  1.125000E+00  1.697500E+00
  1.375000E+00  1.125000E+00  1.130950E+00
  1.625000E+00  1.125000E+00  1.012153E+00
  1.875000E+00  1.125000E+00  1.000581E+00
  1.125000E+00  1.375000E+00  1.130950E+00
  1.375000E+00  1.375000E+00  1.018000E+00
  1.625000E+00  1.375000E+00  1.000900E+00
  1.875000E+00  1.375000E+00  1.000019E+00
  1.125000E+00  1.625000E+00  1.012153E+00
  1.375000E+00  1.625000E+00  1.000900E+00
  1.625000E+00  1.625000E+00  1.000000E+00
  1.875000E+00  1.625000E+00  1.000005E+00
  1.125000E+00  1.875000E+00  1.000581E+00
  1.375000E+00  1.875000E+00  1.000019E+00
  1.625000E+00  1.875000E+00  1.000005E+00
  1.875000E+00  1.875000E+00  1.000000E+00
